<?xml version="1.0"?>
<VTKFile type="PolyData" version="0.1" byte_order="LittleEndian" compressor="vtkZLibDataCompressor">
  <PolyData>
    <Piece NumberOfPoints="361" NumberOfVerts="0" NumberOfLines="0" NumberOfStrips="0" NumberOfPolys="1">
      <PointData>
        <DataArray type="Float64" Name="domain_identifier" format="ascii" RangeMin="1" RangeMax="1">
          1 1 1 1 1 1
          1 1 1 1 1 1
          1 1 1 1 1 1
          1 1 1 1 1 1
          1 1 1 1 1 1
          1 1 1 1 1 1
          1 1 1 1 1 1
          1 1 1 1 1 1
          1 1 1 1 1 1
          1 1 1 1 1 1
          1 1 1 1 1 1
          1 1 1 1 1 1
          1 1 1 1 1 1
          1 1 1 1 1 1
          1 1 1 1 1 1
          1 1 1 1 1 1
          1 1 1 1 1 1
          1 1 1 1 1 1
          1 1 1 1 1 1
          1 1 1 1 1 1
          1 1 1 1 1 1
          1 1 1 1 1 1
          1 1 1 1 1 1
          1 1 1 1 1 1
          1 1 1 1 1 1
          1 1 1 1 1 1
          1 1 1 1 1 1
          1 1 1 1 1 1
          1 1 1 1 1 1
          1 1 1 1 1 1
          1 1 1 1 1 1
          1 1 1 1 1 1
          1 1 1 1 1 1
          1 1 1 1 1 1
          1 1 1 1 1 1
          1 1 1 1 1 1
          1 1 1 1 1 1
          1 1 1 1 1 1
          1 1 1 1 1 1
          1 1 1 1 1 1
          1 1 1 1 1 1
          1 1 1 1 1 1
          1 1 1 1 1 1
          1 1 1 1 1 1
          1 1 1 1 1 1
          1 1 1 1 1 1
          1 1 1 1 1 1
          1 1 1 1 1 1
          1 1 1 1 1 1
          1 1 1 1 1 1
          1 1 1 1 1 1
          1 1 1 1 1 1
          1 1 1 1 1 1
          1 1 1 1 1 1
          1 1 1 1 1 1
          1 1 1 1 1 1
          1 1 1 1 1 1
          1 1 1 1 1 1
          1 1 1 1 1 1
          1 1 1 1 1 1
          1
        </DataArray>
        <DataArray type="Float64" Name="cell_type" format="ascii" RangeMin="1" RangeMax="1">
          1 1 1 1 1 1
          1 1 1 1 1 1
          1 1 1 1 1 1
          1 1 1 1 1 1
          1 1 1 1 1 1
          1 1 1 1 1 1
          1 1 1 1 1 1
          1 1 1 1 1 1
          1 1 1 1 1 1
          1 1 1 1 1 1
          1 1 1 1 1 1
          1 1 1 1 1 1
          1 1 1 1 1 1
          1 1 1 1 1 1
          1 1 1 1 1 1
          1 1 1 1 1 1
          1 1 1 1 1 1
          1 1 1 1 1 1
          1 1 1 1 1 1
          1 1 1 1 1 1
          1 1 1 1 1 1
          1 1 1 1 1 1
          1 1 1 1 1 1
          1 1 1 1 1 1
          1 1 1 1 1 1
          1 1 1 1 1 1
          1 1 1 1 1 1
          1 1 1 1 1 1
          1 1 1 1 1 1
          1 1 1 1 1 1
          1 1 1 1 1 1
          1 1 1 1 1 1
          1 1 1 1 1 1
          1 1 1 1 1 1
          1 1 1 1 1 1
          1 1 1 1 1 1
          1 1 1 1 1 1
          1 1 1 1 1 1
          1 1 1 1 1 1
          1 1 1 1 1 1
          1 1 1 1 1 1
          1 1 1 1 1 1
          1 1 1 1 1 1
          1 1 1 1 1 1
          1 1 1 1 1 1
          1 1 1 1 1 1
          1 1 1 1 1 1
          1 1 1 1 1 1
          1 1 1 1 1 1
          1 1 1 1 1 1
          1 1 1 1 1 1
          1 1 1 1 1 1
          1 1 1 1 1 1
          1 1 1 1 1 1
          1 1 1 1 1 1
          1 1 1 1 1 1
          1 1 1 1 1 1
          1 1 1 1 1 1
          1 1 1 1 1 1
          1 1 1 1 1 1
          1
        </DataArray>
        <Array type="String" Name="boundarydescriptors" format="ascii">
          9 0 9 0 9 0 9 0 9 0 9 0
          9 0 9 0 9 0 9 0 9 0 9 0
          9 0 9 0 9 0 9 0 9 0 9 0
          9 0 9 0 9 0 9 0 9 0 9 0
          9 0 9 0 9 0 9 0 9 0 9 0
          9 0 9 0 9 0 9 0 9 0 9 0
          9 0 9 0 9 0 9 0 9 0 9 0
          9 0 9 0 9 0 9 0 9 0 9 0
          9 0 9 0 9 0 9 0 9 0 9 0
          9 0 9 0 9 0 9 0 9 0 9 0
          9 0 9 0 9 0 9 0 9 0 9 0
          9 0 9 0 9 0 9 0 9 0 9 0
          9 0 9 0 9 0 9 0 9 0 9 0
          9 0 9 0 9 0 9 0 9 0 9 0
          9 0 9 0 9 0 9 0 9 0 9 0
          9 0 9 0 9 0 9 0 9 0 9 0
          9 0 9 0 9 0 9 0 9 0 9 0
          9 0 9 0 9 0 9 0 9 0 9 0
          9 0 9 0 9 0 9 0 9 0 9 0
          9 0 9 0 9 0 9 0 9 0 9 0
          9 0 9 0 9 0 9 0 9 0 9 0
          9 0 9 0 9 0 9 0 9 0 9 0
          9 0 9 0 9 0 9 0 9 0 9 0
          9 0 9 0 9 0 9 0 9 0 9 0
          9 0 9 0 9 0 9 0 9 0 9 0
          9 0 9 0 9 0 9 0 9 0 9 0
          9 0 9 0 9 0 9 0 9 0 9 0
          9 0 9 0 9 0 9 0 9 0 9 0
          9 0 9 0 9 0 9 0 9 0 9 0
          9 0 9 0 9 0 9 0 9 0 9 0
          9 0 9 0 9 0 9 0 9 0 9 0
          9 0 9 0 9 0 9 0 9 0 9 0
          9 0 9 0 9 0 9 0 9 0 9 0
          9 0 9 0 9 0 9 0 9 0 9 0
          9 0 9 0 9 0 9 0 9 0 9 0
          9 0 9 0 9 0 9 0 9 0 9 0
          9 0 9 0 9 0 9 0 9 0 9 0
          9 0 9 0 9 0 9 0 9 0 9 0
          9 0 9 0 9 0 9 0 9 0 9 0
          9 0 9 0 9 0 9 0 9 0 9 0
          9 0 9 0 9 0 9 0 9 0 9 0
          9 0 9 0 9 0 9 0 9 0 9 0
          9 0 9 0 9 0 9 0 9 0 9 0
          9 0 9 0 9 0 9 0 9 0 9 0
          9 0 9 0 9 0 9 0 9 0 9 0
          9 0 9 0 9 0 9 0 9 0 9 0
          9 0 9 0 9 0 9 0 9 0 9 0
          9 0 9 0 9 0 9 0 9 0 9 0
          9 0 9 0 9 0 9 0 9 0 9 0
          9 0 9 0 9 0 9 0 9 0 9 0
          9 0 9 0 9 0 9 0 9 0 9 0
          9 0 9 0 9 0 9 0 9 0 9 0
          9 0 9 0 9 0 9 0 9 0 9 0
          9 0 9 0 9 0 9 0 9 0 9 0
          9 0 9 0 9 0 9 0 9 0 9 0
          9 0 9 0 9 0 9 0 9 0 9 0
          9 0 9 0 9 0 9 0 9 0 9 0
          9 0 9 0 9 0 9 0 9 0 9 0
          9 0 9 0 9 0 9 0 9 0 9 0
          9 0 9 0 9 0 9 0 9 0 9 0
          9 0
        </Array>
      </PointData>
      <CellData>
      </CellData>
      <Points>
        <DataArray type="Float32" Name="Points" NumberOfComponents="3" format="ascii" RangeMin="272.84280958" RangeMax="292.84261537">
          199.82499695 209.9980011 0 199.65100098 209.9940033 0
          199.477005 209.98599243 0 199.30200195 209.97599792 0
          199.12800598 209.96200562 0 198.95500183 209.94500732 0
          198.78100586 209.92500305 0 198.60800171 209.90299988 0
          198.43600464 209.8769989 0 198.26400757 209.8480072 0
          198.09199524 209.81599426 0 197.92100525 209.78100586 0
          197.75 209.7440033 0 197.58099365 209.70300293 0
          197.41200256 209.65899658 0 197.2440033 209.61300659 0
          197.07600403 209.56300354 0 196.91000366 209.51100159 0
          196.7440033 209.45500183 0 196.58000183 209.39700317 0
          196.41600037 209.33599854 0 196.2539978 209.27200317 0
          196.09300232 209.20500183 0 195.93299866 209.13499451 0
          195.77400208 209.06300354 0 195.61599731 208.98800659 0
          195.46000671 208.91000366 0 195.30499268 208.82899475 0
          195.1519928 208.7460022 0 195 208.66000366 0
          194.8500061 208.57200623 0 194.70100403 208.47999573 0
          194.55400085 208.38699341 0 194.40800476 208.28999329 0
          194.26400757 208.19200134 0 194.12199402 208.08999634 0
          193.98199463 207.98599243 0 193.84300232 207.88000488 0
          193.70700073 207.77099609 0 193.57200623 207.66000366 0
          193.43899536 207.54699707 0 193.30900574 207.43099976 0
          193.17999268 207.31399536 0 193.05299377 207.19299316 0
          192.92900085 207.07099915 0 192.80700684 206.94700623 0
          192.68600464 206.82000732 0 192.56900024 206.69099426 0
          192.45300293 206.56100464 0 192.33999634 206.42799377 0
          192.22900391 206.29299927 0 192.11999512 206.15699768 0
          192.01400757 206.01800537 0 191.91000366 205.87800598 0
          191.80799866 205.73599243 0 191.71000671 205.59199524 0
          191.61300659 205.44599915 0 191.52000427 205.29899597 0
          191.42799377 205.1499939 0 191.33999634 205 0
          191.2539978 204.8480072 0 191.17100525 204.69500732 0
          191.08999634 204.53999329 0 191.01199341 204.38400269 0
          190.93699646 204.22599792 0 190.86500549 204.06700134 0
          190.79499817 203.90699768 0 190.72799683 203.7460022 0
          190.66400146 203.58399963 0 190.60299683 203.41999817 0
          190.54499817 203.2559967 0 190.48899841 203.08999634 0
          190.43699646 202.92399597 0 190.38699341 202.7559967 0
          190.34100342 202.58799744 0 190.29699707 202.41900635 0
          190.2559967 202.25 0 190.21899414 202.07899475 0
          190.18400574 201.90800476 0 190.1519928 201.73599243 0
          190.1230011 201.56399536 0 190.09700012 201.39199829 0
          190.07499695 201.21899414 0 190.05499268 201.04499817 0
          190.03799438 200.87199402 0 190.02400208 200.69799805 0
          190.01400757 200.522995 0 190.0059967 200.34899902 0
          190.0019989 200.17500305 0 190 200 0
          190.0019989 199.82499695 0 190.0059967 199.65100098 0
          190.01400757 199.477005 0 190.02400208 199.30200195 0
          190.03799438 199.12800598 0 190.05499268 198.95500183 0
          190.07499695 198.78100586 0 190.09700012 198.60800171 0
          190.1230011 198.43600464 0 190.1519928 198.26400757 0
          190.18400574 198.09199524 0 190.21899414 197.92100525 0
          190.2559967 197.75 0 190.29699707 197.58099365 0
          190.34100342 197.41200256 0 190.38699341 197.2440033 0
          190.43699646 197.07600403 0 190.48899841 196.91000366 0
          190.54499817 196.7440033 0 190.60299683 196.58000183 0
          190.66400146 196.41600037 0 190.72799683 196.2539978 0
          190.79499817 196.09300232 0 190.86500549 195.93299866 0
          190.93699646 195.77400208 0 191.01199341 195.61599731 0
          191.08999634 195.46000671 0 191.17100525 195.30499268 0
          191.2539978 195.1519928 0 191.33999634 195 0
          191.42799377 194.8500061 0 191.52000427 194.70100403 0
          191.61300659 194.55400085 0 191.71000671 194.40800476 0
          191.80799866 194.26400757 0 191.91000366 194.12199402 0
          192.01400757 193.98199463 0 192.11999512 193.84300232 0
          192.22900391 193.70700073 0 192.33999634 193.57200623 0
          192.45300293 193.43899536 0 192.56900024 193.30900574 0
          192.68600464 193.17999268 0 192.80700684 193.05299377 0
          192.92900085 192.92900085 0 193.05299377 192.80700684 0
          193.17999268 192.68600464 0 193.30900574 192.56900024 0
          193.43899536 192.45300293 0 193.57200623 192.33999634 0
          193.70700073 192.22900391 0 193.84300232 192.11999512 0
          193.98199463 192.01400757 0 194.12199402 191.91000366 0
          194.26400757 191.80799866 0 194.40800476 191.71000671 0
          194.55400085 191.61300659 0 194.70100403 191.52000427 0
          194.8500061 191.42799377 0 195 191.33999634 0
          195.1519928 191.2539978 0 195.30499268 191.17100525 0
          195.46000671 191.08999634 0 195.61599731 191.01199341 0
          195.77400208 190.93699646 0 195.93299866 190.86500549 0
          196.09300232 190.79499817 0 196.2539978 190.72799683 0
          196.41600037 190.66400146 0 196.58000183 190.60299683 0
          196.7440033 190.54499817 0 196.91000366 190.48899841 0
          197.07600403 190.43699646 0 197.2440033 190.38699341 0
          197.41200256 190.34100342 0 197.58099365 190.29699707 0
          197.75 190.2559967 0 197.92100525 190.21899414 0
          198.09199524 190.18400574 0 198.26400757 190.1519928 0
          198.43600464 190.1230011 0 198.60800171 190.09700012 0
          198.78100586 190.07499695 0 198.95500183 190.05499268 0
          199.12800598 190.03799438 0 199.30200195 190.02400208 0
          199.477005 190.01400757 0 199.65100098 190.0059967 0
          199.82499695 190.0019989 0 200 190 0
          200.17500305 190.0019989 0 200.34899902 190.0059967 0
          200.522995 190.01400757 0 200.69799805 190.02400208 0
          200.87199402 190.03799438 0 201.04499817 190.05499268 0
          201.21899414 190.07499695 0 201.39199829 190.09700012 0
          201.56399536 190.1230011 0 201.73599243 190.1519928 0
          201.90800476 190.18400574 0 202.07899475 190.21899414 0
          202.25 190.2559967 0 202.41900635 190.29699707 0
          202.58799744 190.34100342 0 202.7559967 190.38699341 0
          202.92399597 190.43699646 0 203.08999634 190.48899841 0
          203.2559967 190.54499817 0 203.41999817 190.60299683 0
          203.58399963 190.66400146 0 203.7460022 190.72799683 0
          203.90699768 190.79499817 0 204.06700134 190.86500549 0
          204.22599792 190.93699646 0 204.38400269 191.01199341 0
          204.53999329 191.08999634 0 204.69500732 191.17100525 0
          204.8480072 191.2539978 0 205 191.33999634 0
          205.1499939 191.42799377 0 205.29899597 191.52000427 0
          205.44599915 191.61300659 0 205.59199524 191.71000671 0
          205.73599243 191.80799866 0 205.87800598 191.91000366 0
          206.01800537 192.01400757 0 206.15699768 192.11999512 0
          206.29299927 192.22900391 0 206.42799377 192.33999634 0
          206.56100464 192.45300293 0 206.69099426 192.56900024 0
          206.82000732 192.68600464 0 206.94700623 192.80700684 0
          207.07099915 192.92900085 0 207.19299316 193.05299377 0
          207.31399536 193.17999268 0 207.43099976 193.30900574 0
          207.54699707 193.43899536 0 207.66000366 193.57200623 0
          207.77099609 193.70700073 0 207.88000488 193.84300232 0
          207.98599243 193.98199463 0 208.08999634 194.12199402 0
          208.19200134 194.26400757 0 208.28999329 194.40800476 0
          208.38699341 194.55400085 0 208.47999573 194.70100403 0
          208.57200623 194.8500061 0 208.66000366 195 0
          208.7460022 195.1519928 0 208.82899475 195.30499268 0
          208.91000366 195.46000671 0 208.98800659 195.61599731 0
          209.06300354 195.77400208 0 209.13499451 195.93299866 0
          209.20500183 196.09300232 0 209.27200317 196.2539978 0
          209.33599854 196.41600037 0 209.39700317 196.58000183 0
          209.45500183 196.7440033 0 209.51100159 196.91000366 0
          209.56300354 197.07600403 0 209.61300659 197.2440033 0
          209.65899658 197.41200256 0 209.70300293 197.58099365 0
          209.7440033 197.75 0 209.78100586 197.92100525 0
          209.81599426 198.09199524 0 209.8480072 198.26400757 0
          209.8769989 198.43600464 0 209.90299988 198.60800171 0
          209.92500305 198.78100586 0 209.94500732 198.95500183 0
          209.96200562 199.12800598 0 209.97599792 199.30200195 0
          209.98599243 199.477005 0 209.9940033 199.65100098 0
          209.9980011 199.82499695 0 210 200 0
          209.9980011 200.17500305 0 209.9940033 200.34899902 0
          209.98599243 200.522995 0 209.97599792 200.69799805 0
          209.96200562 200.87199402 0 209.94500732 201.04499817 0
          209.92500305 201.21899414 0 209.90299988 201.39199829 0
          209.8769989 201.56399536 0 209.8480072 201.73599243 0
          209.81599426 201.90800476 0 209.78100586 202.07899475 0
          209.7440033 202.25 0 209.70300293 202.41900635 0
          209.65899658 202.58799744 0 209.61300659 202.7559967 0
          209.56300354 202.92399597 0 209.51100159 203.08999634 0
          209.45500183 203.2559967 0 209.39700317 203.41999817 0
          209.33599854 203.58399963 0 209.27200317 203.7460022 0
          209.20500183 203.90699768 0 209.13499451 204.06700134 0
          209.06300354 204.22599792 0 208.98800659 204.38400269 0
          208.91000366 204.53999329 0 208.82899475 204.69500732 0
          208.7460022 204.8480072 0 208.66000366 205 0
          208.57200623 205.1499939 0 208.47999573 205.29899597 0
          208.38699341 205.44599915 0 208.28999329 205.59199524 0
          208.19200134 205.73599243 0 208.08999634 205.87800598 0
          207.98599243 206.01800537 0 207.88000488 206.15699768 0
          207.77099609 206.29299927 0 207.66000366 206.42799377 0
          207.54699707 206.56100464 0 207.43099976 206.69099426 0
          207.31399536 206.82000732 0 207.19299316 206.94700623 0
          207.07099915 207.07099915 0 206.94700623 207.19299316 0
          206.82000732 207.31399536 0 206.69099426 207.43099976 0
          206.56100464 207.54699707 0 206.42799377 207.66000366 0
          206.29299927 207.77099609 0 206.15699768 207.88000488 0
          206.01800537 207.98599243 0 205.87800598 208.08999634 0
          205.73599243 208.19200134 0 205.59199524 208.28999329 0
          205.44599915 208.38699341 0 205.29899597 208.47999573 0
          205.1499939 208.57200623 0 205 208.66000366 0
          204.8480072 208.7460022 0 204.69500732 208.82899475 0
          204.53999329 208.91000366 0 204.38400269 208.98800659 0
          204.22599792 209.06300354 0 204.06700134 209.13499451 0
          203.90699768 209.20500183 0 203.7460022 209.27200317 0
          203.58399963 209.33599854 0 203.41999817 209.39700317 0
          203.2559967 209.45500183 0 203.08999634 209.51100159 0
          202.92399597 209.56300354 0 202.7559967 209.61300659 0
          202.58799744 209.65899658 0 202.41900635 209.70300293 0
          202.25 209.7440033 0 202.07899475 209.78100586 0
          201.90800476 209.81599426 0 201.73599243 209.8480072 0
          201.56399536 209.8769989 0 201.39199829 209.90299988 0
          201.21899414 209.92500305 0 201.04499817 209.94500732 0
          200.87199402 209.96200562 0 200.69799805 209.97599792 0
          200.522995 209.98599243 0 200.34899902 209.9940033 0
          200.17500305 209.9980011 0 200 210 0
          200 210 0
        </DataArray>
      </Points>
      <Verts>
        <DataArray type="Int64" Name="connectivity" format="ascii" RangeMin="1e+299" RangeMax="-1e+299">
        </DataArray>
        <DataArray type="Int64" Name="offsets" format="ascii" RangeMin="1e+299" RangeMax="-1e+299">
        </DataArray>
      </Verts>
      <Lines>
        <DataArray type="Int64" Name="connectivity" format="ascii" RangeMin="1e+299" RangeMax="-1e+299">
        </DataArray>
        <DataArray type="Int64" Name="offsets" format="ascii" RangeMin="1e+299" RangeMax="-1e+299">
        </DataArray>
      </Lines>
      <Strips>
        <DataArray type="Int64" Name="connectivity" format="ascii" RangeMin="1e+299" RangeMax="-1e+299">
        </DataArray>
        <DataArray type="Int64" Name="offsets" format="ascii" RangeMin="1e+299" RangeMax="-1e+299">
        </DataArray>
      </Strips>
      <Polys>
        <DataArray type="Int64" Name="connectivity" format="ascii" RangeMin="0" RangeMax="360">
          0 1 2 3 4 5
          6 7 8 9 10 11
          12 13 14 15 16 17
          18 19 20 21 22 23
          24 25 26 27 28 29
          30 31 32 33 34 35
          36 37 38 39 40 41
          42 43 44 45 46 47
          48 49 50 51 52 53
          54 55 56 57 58 59
          60 61 62 63 64 65
          66 67 68 69 70 71
          72 73 74 75 76 77
          78 79 80 81 82 83
          84 85 86 87 88 89
          90 91 92 93 94 95
          96 97 98 99 100 101
          102 103 104 105 106 107
          108 109 110 111 112 113
          114 115 116 117 118 119
          120 121 122 123 124 125
          126 127 128 129 130 131
          132 133 134 135 136 137
          138 139 140 141 142 143
          144 145 146 147 148 149
          150 151 152 153 154 155
          156 157 158 159 160 161
          162 163 164 165 166 167
          168 169 170 171 172 173
          174 175 176 177 178 179
          180 181 182 183 184 185
          186 187 188 189 190 191
          192 193 194 195 196 197
          198 199 200 201 202 203
          204 205 206 207 208 209
          210 211 212 213 214 215
          216 217 218 219 220 221
          222 223 224 225 226 227
          228 229 230 231 232 233
          234 235 236 237 238 239
          240 241 242 243 244 245
          246 247 248 249 250 251
          252 253 254 255 256 257
          258 259 260 261 262 263
          264 265 266 267 268 269
          270 271 272 273 274 275
          276 277 278 279 280 281
          282 283 284 285 286 287
          288 289 290 291 292 293
          294 295 296 297 298 299
          300 301 302 303 304 305
          306 307 308 309 310 311
          312 313 314 315 316 317
          318 319 320 321 322 323
          324 325 326 327 328 329
          330 331 332 333 334 335
          336 337 338 339 340 341
          342 343 344 345 346 347
          348 349 350 351 352 353
          354 355 356 357 358 359
          360
        </DataArray>
        <DataArray type="Int64" Name="offsets" format="ascii" RangeMin="361" RangeMax="361">
          361
        </DataArray>
      </Polys>
    </Piece>
  </PolyData>
</VTKFile>
